864
positions of argon atom for timestep 1
Ar 0.0 0.0 0.0
Ar 0.0 0.0 5.79643333332e-10
Ar 0.0 0.0 1.15928666666e-09
Ar 0.0 0.0 1.73892999999e-09
Ar 0.0 0.0 2.31857333333e-09
Ar 0.0 0.0 2.89821677768e-09
Ar 0.0 5.79643333332e-10 0.0
Ar 0.0 5.79643333332e-10 5.79643333332e-10
Ar 0.0 5.79643333332e-10 1.15928666666e-09
Ar 0.0 5.79643333332e-10 1.73892999999e-09
Ar 0.0 5.79643333332e-10 2.31857333333e-09
Ar 0.0 5.79643333332e-10 2.89821677768e-09
Ar 0.0 1.15928666666e-09 0.0
Ar 0.0 1.15928666666e-09 5.79643333332e-10
Ar 0.0 1.15928666666e-09 1.15928666666e-09
Ar 0.0 1.15928666666e-09 1.73892999999e-09
Ar 0.0 1.15928666666e-09 2.31857333333e-09
Ar 0.0 1.15928666666e-09 2.89821677768e-09
Ar 0.0 1.73892999999e-09 0.0
Ar 0.0 1.73892999999e-09 5.79643333332e-10
Ar 0.0 1.73892999999e-09 1.15928666666e-09
Ar 0.0 1.73892999999e-09 1.73892999999e-09
Ar 0.0 1.73892999999e-09 2.31857333333e-09
Ar 0.0 1.73892999999e-09 2.89821677768e-09
Ar 0.0 2.31857333333e-09 0.0
Ar 0.0 2.31857333333e-09 5.79643333332e-10
Ar 0.0 2.31857333333e-09 1.15928666666e-09
Ar 0.0 2.31857333333e-09 1.73892999999e-09
Ar 0.0 2.31857333333e-09 2.31857333333e-09
Ar 0.0 2.31857333333e-09 2.89821677768e-09
Ar 0.0 2.89821677768e-09 0.0
Ar 0.0 2.89821677768e-09 5.79643333332e-10
Ar 0.0 2.89821677768e-09 1.15928666666e-09
Ar 0.0 2.89821677768e-09 1.73892999999e-09
Ar 0.0 2.89821677768e-09 2.31857333333e-09
Ar 0.0 2.89821677768e-09 2.89821677768e-09
Ar 0.0 2.89821666666e-10 2.89821666666e-10
Ar 0.0 2.89821666666e-10 8.69464999997e-10
Ar 0.0 2.89821666666e-10 1.44910838884e-09
Ar 0.0 2.89821666666e-10 2.02875161115e-09
Ar 0.0 2.89821666666e-10 2.6083950555e-09
Ar 0.0 2.89821666666e-10 3.18803827781e-09
Ar 0.0 8.69464999997e-10 2.89821666666e-10
Ar 0.0 8.69464999997e-10 8.69464999997e-10
Ar 0.0 8.69464999997e-10 1.44910838884e-09
Ar 0.0 8.69464999997e-10 2.02875161115e-09
Ar 0.0 8.69464999997e-10 2.6083950555e-09
Ar 0.0 8.69464999997e-10 3.18803827781e-09
Ar 0.0 1.44910838884e-09 2.89821666666e-10
Ar 0.0 1.44910838884e-09 8.69464999997e-10
Ar 0.0 1.44910838884e-09 1.44910838884e-09
Ar 0.0 1.44910838884e-09 2.02875161115e-09
Ar 0.0 1.44910838884e-09 2.6083950555e-09
Ar 0.0 1.44910838884e-09 3.18803827781e-09
Ar 0.0 2.02875161115e-09 2.89821666666e-10
Ar 0.0 2.02875161115e-09 8.69464999997e-10
Ar 0.0 2.02875161115e-09 1.44910838884e-09
Ar 0.0 2.02875161115e-09 2.02875161115e-09
Ar 0.0 2.02875161115e-09 2.6083950555e-09
Ar 0.0 2.02875161115e-09 3.18803827781e-09
Ar 0.0 2.6083950555e-09 2.89821666666e-10
Ar 0.0 2.6083950555e-09 8.69464999997e-10
Ar 0.0 2.6083950555e-09 1.44910838884e-09
Ar 0.0 2.6083950555e-09 2.02875161115e-09
Ar 0.0 2.6083950555e-09 2.6083950555e-09
Ar 0.0 2.6083950555e-09 3.18803827781e-09
Ar 0.0 3.18803827781e-09 2.89821666666e-10
Ar 0.0 3.18803827781e-09 8.69464999997e-10
Ar 0.0 3.18803827781e-09 1.44910838884e-09
Ar 0.0 3.18803827781e-09 2.02875161115e-09
Ar 0.0 3.18803827781e-09 2.6083950555e-09
Ar 0.0 3.18803827781e-09 3.18803827781e-09
Ar 5.79643333332e-10 0.0 0.0
Ar 5.79643333332e-10 0.0 5.79643333332e-10
Ar 5.79643333332e-10 0.0 1.15928666666e-09
Ar 5.79643333332e-10 0.0 1.73892999999e-09
Ar 5.79643333332e-10 0.0 2.31857333333e-09
Ar 5.79643333332e-10 0.0 2.89821677768e-09
Ar 5.79643333332e-10 5.79643333332e-10 0.0
Ar 5.79643333332e-10 5.79643333332e-10 5.79643333332e-10
Ar 5.79643333332e-10 5.79643333332e-10 1.15928666666e-09
Ar 5.79643333332e-10 5.79643333332e-10 1.73892999999e-09
Ar 5.79643333332e-10 5.79643333332e-10 2.31857333333e-09
Ar 5.79643333332e-10 5.79643333332e-10 2.89821677768e-09
Ar 5.79643333332e-10 1.15928666666e-09 0.0
Ar 5.79643333332e-10 1.15928666666e-09 5.79643333332e-10
Ar 5.79643333332e-10 1.15928666666e-09 1.15928666666e-09
Ar 5.79643333332e-10 1.15928666666e-09 1.73892999999e-09
Ar 5.79643333332e-10 1.15928666666e-09 2.31857333333e-09
Ar 5.79643333332e-10 1.15928666666e-09 2.89821677768e-09
Ar 5.79643333332e-10 1.73892999999e-09 0.0
Ar 5.79643333332e-10 1.73892999999e-09 5.79643333332e-10
Ar 5.79643333332e-10 1.73892999999e-09 1.15928666666e-09
Ar 5.79643333332e-10 1.73892999999e-09 1.73892999999e-09
Ar 5.79643333332e-10 1.73892999999e-09 2.31857333333e-09
Ar 5.79643333332e-10 1.73892999999e-09 2.89821677768e-09
Ar 5.79643333332e-10 2.31857333333e-09 0.0
Ar 5.79643333332e-10 2.31857333333e-09 5.79643333332e-10
Ar 5.79643333332e-10 2.31857333333e-09 1.15928666666e-09
Ar 5.79643333332e-10 2.31857333333e-09 1.73892999999e-09
Ar 5.79643333332e-10 2.31857333333e-09 2.31857333333e-09
Ar 5.79643333332e-10 2.31857333333e-09 2.89821677768e-09
Ar 5.79643333332e-10 2.89821677768e-09 0.0
Ar 5.79643333332e-10 2.89821677768e-09 5.79643333332e-10
Ar 5.79643333332e-10 2.89821677768e-09 1.15928666666e-09
Ar 5.79643333332e-10 2.89821677768e-09 1.73892999999e-09
Ar 5.79643333332e-10 2.89821677768e-09 2.31857333333e-09
Ar 5.79643333332e-10 2.89821677768e-09 2.89821677768e-09
Ar 5.79643333332e-10 2.89821666666e-10 2.89821666666e-10
Ar 5.79643333332e-10 2.89821666666e-10 8.69464999997e-10
Ar 5.79643333332e-10 2.89821666666e-10 1.44910838884e-09
Ar 5.79643333332e-10 2.89821666666e-10 2.02875161115e-09
Ar 5.79643333332e-10 2.89821666666e-10 2.6083950555e-09
Ar 5.79643333332e-10 2.89821666666e-10 3.18803827781e-09
Ar 5.79643333332e-10 8.69464999997e-10 2.89821666666e-10
Ar 5.79643333332e-10 8.69464999997e-10 8.69464999997e-10
Ar 5.79643333332e-10 8.69464999997e-10 1.44910838884e-09
Ar 5.79643333332e-10 8.69464999997e-10 2.02875161115e-09
Ar 5.79643333332e-10 8.69464999997e-10 2.6083950555e-09
Ar 5.79643333332e-10 8.69464999997e-10 3.18803827781e-09
Ar 5.79643333332e-10 1.44910838884e-09 2.89821666666e-10
Ar 5.79643333332e-10 1.44910838884e-09 8.69464999997e-10
Ar 5.79643333332e-10 1.44910838884e-09 1.44910838884e-09
Ar 5.79643333332e-10 1.44910838884e-09 2.02875161115e-09
Ar 5.79643333332e-10 1.44910838884e-09 2.6083950555e-09
Ar 5.79643333332e-10 1.44910838884e-09 3.18803827781e-09
Ar 5.79643333332e-10 2.02875161115e-09 2.89821666666e-10
Ar 5.79643333332e-10 2.02875161115e-09 8.69464999997e-10
Ar 5.79643333332e-10 2.02875161115e-09 1.44910838884e-09
Ar 5.79643333332e-10 2.02875161115e-09 2.02875161115e-09
Ar 5.79643333332e-10 2.02875161115e-09 2.6083950555e-09
Ar 5.79643333332e-10 2.02875161115e-09 3.18803827781e-09
Ar 5.79643333332e-10 2.6083950555e-09 2.89821666666e-10
Ar 5.79643333332e-10 2.6083950555e-09 8.69464999997e-10
Ar 5.79643333332e-10 2.6083950555e-09 1.44910838884e-09
Ar 5.79643333332e-10 2.6083950555e-09 2.02875161115e-09
Ar 5.79643333332e-10 2.6083950555e-09 2.6083950555e-09
Ar 5.79643333332e-10 2.6083950555e-09 3.18803827781e-09
Ar 5.79643333332e-10 3.18803827781e-09 2.89821666666e-10
Ar 5.79643333332e-10 3.18803827781e-09 8.69464999997e-10
Ar 5.79643333332e-10 3.18803827781e-09 1.44910838884e-09
Ar 5.79643333332e-10 3.18803827781e-09 2.02875161115e-09
Ar 5.79643333332e-10 3.18803827781e-09 2.6083950555e-09
Ar 5.79643333332e-10 3.18803827781e-09 3.18803827781e-09
Ar 1.15928666666e-09 0.0 0.0
Ar 1.15928666666e-09 0.0 5.79643333332e-10
Ar 1.15928666666e-09 0.0 1.15928666666e-09
Ar 1.15928666666e-09 0.0 1.73892999999e-09
Ar 1.15928666666e-09 0.0 2.31857333333e-09
Ar 1.15928666666e-09 0.0 2.89821677768e-09
Ar 1.15928666666e-09 5.79643333332e-10 0.0
Ar 1.15928666666e-09 5.79643333332e-10 5.79643333332e-10
Ar 1.15928666666e-09 5.79643333332e-10 1.15928666666e-09
Ar 1.15928666666e-09 5.79643333332e-10 1.73892999999e-09
Ar 1.15928666666e-09 5.79643333332e-10 2.31857333333e-09
Ar 1.15928666666e-09 5.79643333332e-10 2.89821677768e-09
Ar 1.15928666666e-09 1.15928666666e-09 0.0
Ar 1.15928666666e-09 1.15928666666e-09 5.79643333332e-10
Ar 1.15928666666e-09 1.15928666666e-09 1.15928666666e-09
Ar 1.15928666666e-09 1.15928666666e-09 1.73892999999e-09
Ar 1.15928666666e-09 1.15928666666e-09 2.31857333333e-09
Ar 1.15928666666e-09 1.15928666666e-09 2.89821677768e-09
Ar 1.15928666666e-09 1.73892999999e-09 0.0
Ar 1.15928666666e-09 1.73892999999e-09 5.79643333332e-10
Ar 1.15928666666e-09 1.73892999999e-09 1.15928666666e-09
Ar 1.15928666666e-09 1.73892999999e-09 1.73892999999e-09
Ar 1.15928666666e-09 1.73892999999e-09 2.31857333333e-09
Ar 1.15928666666e-09 1.73892999999e-09 2.89821677768e-09
Ar 1.15928666666e-09 2.31857333333e-09 0.0
Ar 1.15928666666e-09 2.31857333333e-09 5.79643333332e-10
Ar 1.15928666666e-09 2.31857333333e-09 1.15928666666e-09
Ar 1.15928666666e-09 2.31857333333e-09 1.73892999999e-09
Ar 1.15928666666e-09 2.31857333333e-09 2.31857333333e-09
Ar 1.15928666666e-09 2.31857333333e-09 2.89821677768e-09
Ar 1.15928666666e-09 2.89821677768e-09 0.0
Ar 1.15928666666e-09 2.89821677768e-09 5.79643333332e-10
Ar 1.15928666666e-09 2.89821677768e-09 1.15928666666e-09
Ar 1.15928666666e-09 2.89821677768e-09 1.73892999999e-09
Ar 1.15928666666e-09 2.89821677768e-09 2.31857333333e-09
Ar 1.15928666666e-09 2.89821677768e-09 2.89821677768e-09
Ar 1.15928666666e-09 2.89821666666e-10 2.89821666666e-10
Ar 1.15928666666e-09 2.89821666666e-10 8.69464999997e-10
Ar 1.15928666666e-09 2.89821666666e-10 1.44910838884e-09
Ar 1.15928666666e-09 2.89821666666e-10 2.02875161115e-09
Ar 1.15928666666e-09 2.89821666666e-10 2.6083950555e-09
Ar 1.15928666666e-09 2.89821666666e-10 3.18803827781e-09
Ar 1.15928666666e-09 8.69464999997e-10 2.89821666666e-10
Ar 1.15928666666e-09 8.69464999997e-10 8.69464999997e-10
Ar 1.15928666666e-09 8.69464999997e-10 1.44910838884e-09
Ar 1.15928666666e-09 8.69464999997e-10 2.02875161115e-09
Ar 1.15928666666e-09 8.69464999997e-10 2.6083950555e-09
Ar 1.15928666666e-09 8.69464999997e-10 3.18803827781e-09
Ar 1.15928666666e-09 1.44910838884e-09 2.89821666666e-10
Ar 1.15928666666e-09 1.44910838884e-09 8.69464999997e-10
Ar 1.15928666666e-09 1.44910838884e-09 1.44910838884e-09
Ar 1.15928666666e-09 1.44910838884e-09 2.02875161115e-09
Ar 1.15928666666e-09 1.44910838884e-09 2.6083950555e-09
Ar 1.15928666666e-09 1.44910838884e-09 3.18803827781e-09
Ar 1.15928666666e-09 2.02875161115e-09 2.89821666666e-10
Ar 1.15928666666e-09 2.02875161115e-09 8.69464999997e-10
Ar 1.15928666666e-09 2.02875161115e-09 1.44910838884e-09
Ar 1.15928666666e-09 2.02875161115e-09 2.02875161115e-09
Ar 1.15928666666e-09 2.02875161115e-09 2.6083950555e-09
Ar 1.15928666666e-09 2.02875161115e-09 3.18803827781e-09
Ar 1.15928666666e-09 2.6083950555e-09 2.89821666666e-10
Ar 1.15928666666e-09 2.6083950555e-09 8.69464999997e-10
Ar 1.15928666666e-09 2.6083950555e-09 1.44910838884e-09
Ar 1.15928666666e-09 2.6083950555e-09 2.02875161115e-09
Ar 1.15928666666e-09 2.6083950555e-09 2.6083950555e-09
Ar 1.15928666666e-09 2.6083950555e-09 3.18803827781e-09
Ar 1.15928666666e-09 3.18803827781e-09 2.89821666666e-10
Ar 1.15928666666e-09 3.18803827781e-09 8.69464999997e-10
Ar 1.15928666666e-09 3.18803827781e-09 1.44910838884e-09
Ar 1.15928666666e-09 3.18803827781e-09 2.02875161115e-09
Ar 1.15928666666e-09 3.18803827781e-09 2.6083950555e-09
Ar 1.15928666666e-09 3.18803827781e-09 3.18803827781e-09
Ar 1.73892999999e-09 0.0 0.0
Ar 1.73892999999e-09 0.0 5.79643333332e-10
Ar 1.73892999999e-09 0.0 1.15928666666e-09
Ar 1.73892999999e-09 0.0 1.73892999999e-09
Ar 1.73892999999e-09 0.0 2.31857333333e-09
Ar 1.73892999999e-09 0.0 2.89821677768e-09
Ar 1.73892999999e-09 5.79643333332e-10 0.0
Ar 1.73892999999e-09 5.79643333332e-10 5.79643333332e-10
Ar 1.73892999999e-09 5.79643333332e-10 1.15928666666e-09
Ar 1.73892999999e-09 5.79643333332e-10 1.73892999999e-09
Ar 1.73892999999e-09 5.79643333332e-10 2.31857333333e-09
Ar 1.73892999999e-09 5.79643333332e-10 2.89821677768e-09
Ar 1.73892999999e-09 1.15928666666e-09 0.0
Ar 1.73892999999e-09 1.15928666666e-09 5.79643333332e-10
Ar 1.73892999999e-09 1.15928666666e-09 1.15928666666e-09
Ar 1.73892999999e-09 1.15928666666e-09 1.73892999999e-09
Ar 1.73892999999e-09 1.15928666666e-09 2.31857333333e-09
Ar 1.73892999999e-09 1.15928666666e-09 2.89821677768e-09
Ar 1.73892999999e-09 1.73892999999e-09 0.0
Ar 1.73892999999e-09 1.73892999999e-09 5.79643333332e-10
Ar 1.73892999999e-09 1.73892999999e-09 1.15928666666e-09
Ar 1.73892999999e-09 1.73892999999e-09 1.73892999999e-09
Ar 1.73892999999e-09 1.73892999999e-09 2.31857333333e-09
Ar 1.73892999999e-09 1.73892999999e-09 2.89821677768e-09
Ar 1.73892999999e-09 2.31857333333e-09 0.0
Ar 1.73892999999e-09 2.31857333333e-09 5.79643333332e-10
Ar 1.73892999999e-09 2.31857333333e-09 1.15928666666e-09
Ar 1.73892999999e-09 2.31857333333e-09 1.73892999999e-09
Ar 1.73892999999e-09 2.31857333333e-09 2.31857333333e-09
Ar 1.73892999999e-09 2.31857333333e-09 2.89821677768e-09
Ar 1.73892999999e-09 2.89821677768e-09 0.0
Ar 1.73892999999e-09 2.89821677768e-09 5.79643333332e-10
Ar 1.73892999999e-09 2.89821677768e-09 1.15928666666e-09
Ar 1.73892999999e-09 2.89821677768e-09 1.73892999999e-09
Ar 1.73892999999e-09 2.89821677768e-09 2.31857333333e-09
Ar 1.73892999999e-09 2.89821677768e-09 2.89821677768e-09
Ar 1.73892999999e-09 2.89821666666e-10 2.89821666666e-10
Ar 1.73892999999e-09 2.89821666666e-10 8.69464999997e-10
Ar 1.73892999999e-09 2.89821666666e-10 1.44910838884e-09
Ar 1.73892999999e-09 2.89821666666e-10 2.02875161115e-09
Ar 1.73892999999e-09 2.89821666666e-10 2.6083950555e-09
Ar 1.73892999999e-09 2.89821666666e-10 3.18803827781e-09
Ar 1.73892999999e-09 8.69464999997e-10 2.89821666666e-10
Ar 1.73892999999e-09 8.69464999997e-10 8.69464999997e-10
Ar 1.73892999999e-09 8.69464999997e-10 1.44910838884e-09
Ar 1.73892999999e-09 8.69464999997e-10 2.02875161115e-09
Ar 1.73892999999e-09 8.69464999997e-10 2.6083950555e-09
Ar 1.73892999999e-09 8.69464999997e-10 3.18803827781e-09
Ar 1.73892999999e-09 1.44910838884e-09 2.89821666666e-10
Ar 1.73892999999e-09 1.44910838884e-09 8.69464999997e-10
Ar 1.73892999999e-09 1.44910838884e-09 1.44910838884e-09
Ar 1.73892999999e-09 1.44910838884e-09 2.02875161115e-09
Ar 1.73892999999e-09 1.44910838884e-09 2.6083950555e-09
Ar 1.73892999999e-09 1.44910838884e-09 3.18803827781e-09
Ar 1.73892999999e-09 2.02875161115e-09 2.89821666666e-10
Ar 1.73892999999e-09 2.02875161115e-09 8.69464999997e-10
Ar 1.73892999999e-09 2.02875161115e-09 1.44910838884e-09
Ar 1.73892999999e-09 2.02875161115e-09 2.02875161115e-09
Ar 1.73892999999e-09 2.02875161115e-09 2.6083950555e-09
Ar 1.73892999999e-09 2.02875161115e-09 3.18803827781e-09
Ar 1.73892999999e-09 2.6083950555e-09 2.89821666666e-10
Ar 1.73892999999e-09 2.6083950555e-09 8.69464999997e-10
Ar 1.73892999999e-09 2.6083950555e-09 1.44910838884e-09
Ar 1.73892999999e-09 2.6083950555e-09 2.02875161115e-09
Ar 1.73892999999e-09 2.6083950555e-09 2.6083950555e-09
Ar 1.73892999999e-09 2.6083950555e-09 3.18803827781e-09
Ar 1.73892999999e-09 3.18803827781e-09 2.89821666666e-10
Ar 1.73892999999e-09 3.18803827781e-09 8.69464999997e-10
Ar 1.73892999999e-09 3.18803827781e-09 1.44910838884e-09
Ar 1.73892999999e-09 3.18803827781e-09 2.02875161115e-09
Ar 1.73892999999e-09 3.18803827781e-09 2.6083950555e-09
Ar 1.73892999999e-09 3.18803827781e-09 3.18803827781e-09
Ar 2.31857333333e-09 0.0 0.0
Ar 2.31857333333e-09 0.0 5.79643333332e-10
Ar 2.31857333333e-09 0.0 1.15928666666e-09
Ar 2.31857333333e-09 0.0 1.73892999999e-09
Ar 2.31857333333e-09 0.0 2.31857333333e-09
Ar 2.31857333333e-09 0.0 2.89821677768e-09
Ar 2.31857333333e-09 5.79643333332e-10 0.0
Ar 2.31857333333e-09 5.79643333332e-10 5.79643333332e-10
Ar 2.31857333333e-09 5.79643333332e-10 1.15928666666e-09
Ar 2.31857333333e-09 5.79643333332e-10 1.73892999999e-09
Ar 2.31857333333e-09 5.79643333332e-10 2.31857333333e-09
Ar 2.31857333333e-09 5.79643333332e-10 2.89821677768e-09
Ar 2.31857333333e-09 1.15928666666e-09 0.0
Ar 2.31857333333e-09 1.15928666666e-09 5.79643333332e-10
Ar 2.31857333333e-09 1.15928666666e-09 1.15928666666e-09
Ar 2.31857333333e-09 1.15928666666e-09 1.73892999999e-09
Ar 2.31857333333e-09 1.15928666666e-09 2.31857333333e-09
Ar 2.31857333333e-09 1.15928666666e-09 2.89821677768e-09
Ar 2.31857333333e-09 1.73892999999e-09 0.0
Ar 2.31857333333e-09 1.73892999999e-09 5.79643333332e-10
Ar 2.31857333333e-09 1.73892999999e-09 1.15928666666e-09
Ar 2.31857333333e-09 1.73892999999e-09 1.73892999999e-09
Ar 2.31857333333e-09 1.73892999999e-09 2.31857333333e-09
Ar 2.31857333333e-09 1.73892999999e-09 2.89821677768e-09
Ar 2.31857333333e-09 2.31857333333e-09 0.0
Ar 2.31857333333e-09 2.31857333333e-09 5.79643333332e-10
Ar 2.31857333333e-09 2.31857333333e-09 1.15928666666e-09
Ar 2.31857333333e-09 2.31857333333e-09 1.73892999999e-09
Ar 2.31857333333e-09 2.31857333333e-09 2.31857333333e-09
Ar 2.31857333333e-09 2.31857333333e-09 2.89821677768e-09
Ar 2.31857333333e-09 2.89821677768e-09 0.0
Ar 2.31857333333e-09 2.89821677768e-09 5.79643333332e-10
Ar 2.31857333333e-09 2.89821677768e-09 1.15928666666e-09
Ar 2.31857333333e-09 2.89821677768e-09 1.73892999999e-09
Ar 2.31857333333e-09 2.89821677768e-09 2.31857333333e-09
Ar 2.31857333333e-09 2.89821677768e-09 2.89821677768e-09
Ar 2.31857333333e-09 2.89821666666e-10 2.89821666666e-10
Ar 2.31857333333e-09 2.89821666666e-10 8.69464999997e-10
Ar 2.31857333333e-09 2.89821666666e-10 1.44910838884e-09
Ar 2.31857333333e-09 2.89821666666e-10 2.02875161115e-09
Ar 2.31857333333e-09 2.89821666666e-10 2.6083950555e-09
Ar 2.31857333333e-09 2.89821666666e-10 3.18803827781e-09
Ar 2.31857333333e-09 8.69464999997e-10 2.89821666666e-10
Ar 2.31857333333e-09 8.69464999997e-10 8.69464999997e-10
Ar 2.31857333333e-09 8.69464999997e-10 1.44910838884e-09
Ar 2.31857333333e-09 8.69464999997e-10 2.02875161115e-09
Ar 2.31857333333e-09 8.69464999997e-10 2.6083950555e-09
Ar 2.31857333333e-09 8.69464999997e-10 3.18803827781e-09
Ar 2.31857333333e-09 1.44910838884e-09 2.89821666666e-10
Ar 2.31857333333e-09 1.44910838884e-09 8.69464999997e-10
Ar 2.31857333333e-09 1.44910838884e-09 1.44910838884e-09
Ar 2.31857333333e-09 1.44910838884e-09 2.02875161115e-09
Ar 2.31857333333e-09 1.44910838884e-09 2.6083950555e-09
Ar 2.31857333333e-09 1.44910838884e-09 3.18803827781e-09
Ar 2.31857333333e-09 2.02875161115e-09 2.89821666666e-10
Ar 2.31857333333e-09 2.02875161115e-09 8.69464999997e-10
Ar 2.31857333333e-09 2.02875161115e-09 1.44910838884e-09
Ar 2.31857333333e-09 2.02875161115e-09 2.02875161115e-09
Ar 2.31857333333e-09 2.02875161115e-09 2.6083950555e-09
Ar 2.31857333333e-09 2.02875161115e-09 3.18803827781e-09
Ar 2.31857333333e-09 2.6083950555e-09 2.89821666666e-10
Ar 2.31857333333e-09 2.6083950555e-09 8.69464999997e-10
Ar 2.31857333333e-09 2.6083950555e-09 1.44910838884e-09
Ar 2.31857333333e-09 2.6083950555e-09 2.02875161115e-09
Ar 2.31857333333e-09 2.6083950555e-09 2.6083950555e-09
Ar 2.31857333333e-09 2.6083950555e-09 3.18803827781e-09
Ar 2.31857333333e-09 3.18803827781e-09 2.89821666666e-10
Ar 2.31857333333e-09 3.18803827781e-09 8.69464999997e-10
Ar 2.31857333333e-09 3.18803827781e-09 1.44910838884e-09
Ar 2.31857333333e-09 3.18803827781e-09 2.02875161115e-09
Ar 2.31857333333e-09 3.18803827781e-09 2.6083950555e-09
Ar 2.31857333333e-09 3.18803827781e-09 3.18803827781e-09
Ar 2.89821677768e-09 0.0 0.0
Ar 2.89821677768e-09 0.0 5.79643333332e-10
Ar 2.89821677768e-09 0.0 1.15928666666e-09
Ar 2.89821677768e-09 0.0 1.73892999999e-09
Ar 2.89821677768e-09 0.0 2.31857333333e-09
Ar 2.89821677768e-09 0.0 2.89821677768e-09
Ar 2.89821677768e-09 5.79643333332e-10 0.0
Ar 2.89821677768e-09 5.79643333332e-10 5.79643333332e-10
Ar 2.89821677768e-09 5.79643333332e-10 1.15928666666e-09
Ar 2.89821677768e-09 5.79643333332e-10 1.73892999999e-09
Ar 2.89821677768e-09 5.79643333332e-10 2.31857333333e-09
Ar 2.89821677768e-09 5.79643333332e-10 2.89821677768e-09
Ar 2.89821677768e-09 1.15928666666e-09 0.0
Ar 2.89821677768e-09 1.15928666666e-09 5.79643333332e-10
Ar 2.89821677768e-09 1.15928666666e-09 1.15928666666e-09
Ar 2.89821677768e-09 1.15928666666e-09 1.73892999999e-09
Ar 2.89821677768e-09 1.15928666666e-09 2.31857333333e-09
Ar 2.89821677768e-09 1.15928666666e-09 2.89821677768e-09
Ar 2.89821677768e-09 1.73892999999e-09 0.0
Ar 2.89821677768e-09 1.73892999999e-09 5.79643333332e-10
Ar 2.89821677768e-09 1.73892999999e-09 1.15928666666e-09
Ar 2.89821677768e-09 1.73892999999e-09 1.73892999999e-09
Ar 2.89821677768e-09 1.73892999999e-09 2.31857333333e-09
Ar 2.89821677768e-09 1.73892999999e-09 2.89821677768e-09
Ar 2.89821677768e-09 2.31857333333e-09 0.0
Ar 2.89821677768e-09 2.31857333333e-09 5.79643333332e-10
Ar 2.89821677768e-09 2.31857333333e-09 1.15928666666e-09
Ar 2.89821677768e-09 2.31857333333e-09 1.73892999999e-09
Ar 2.89821677768e-09 2.31857333333e-09 2.31857333333e-09
Ar 2.89821677768e-09 2.31857333333e-09 2.89821677768e-09
Ar 2.89821677768e-09 2.89821677768e-09 0.0
Ar 2.89821677768e-09 2.89821677768e-09 5.79643333332e-10
Ar 2.89821677768e-09 2.89821677768e-09 1.15928666666e-09
Ar 2.89821677768e-09 2.89821677768e-09 1.73892999999e-09
Ar 2.89821677768e-09 2.89821677768e-09 2.31857333333e-09
Ar 2.89821677768e-09 2.89821677768e-09 2.89821677768e-09
Ar 2.89821677768e-09 2.89821666666e-10 2.89821666666e-10
Ar 2.89821677768e-09 2.89821666666e-10 8.69464999997e-10
Ar 2.89821677768e-09 2.89821666666e-10 1.44910838884e-09
Ar 2.89821677768e-09 2.89821666666e-10 2.02875161115e-09
Ar 2.89821677768e-09 2.89821666666e-10 2.6083950555e-09
Ar 2.89821677768e-09 2.89821666666e-10 3.18803827781e-09
Ar 2.89821677768e-09 8.69464999997e-10 2.89821666666e-10
Ar 2.89821677768e-09 8.69464999997e-10 8.69464999997e-10
Ar 2.89821677768e-09 8.69464999997e-10 1.44910838884e-09
Ar 2.89821677768e-09 8.69464999997e-10 2.02875161115e-09
Ar 2.89821677768e-09 8.69464999997e-10 2.6083950555e-09
Ar 2.89821677768e-09 8.69464999997e-10 3.18803827781e-09
Ar 2.89821677768e-09 1.44910838884e-09 2.89821666666e-10
Ar 2.89821677768e-09 1.44910838884e-09 8.69464999997e-10
Ar 2.89821677768e-09 1.44910838884e-09 1.44910838884e-09
Ar 2.89821677768e-09 1.44910838884e-09 2.02875161115e-09
Ar 2.89821677768e-09 1.44910838884e-09 2.6083950555e-09
Ar 2.89821677768e-09 1.44910838884e-09 3.18803827781e-09
Ar 2.89821677768e-09 2.02875161115e-09 2.89821666666e-10
Ar 2.89821677768e-09 2.02875161115e-09 8.69464999997e-10
Ar 2.89821677768e-09 2.02875161115e-09 1.44910838884e-09
Ar 2.89821677768e-09 2.02875161115e-09 2.02875161115e-09
Ar 2.89821677768e-09 2.02875161115e-09 2.6083950555e-09
Ar 2.89821677768e-09 2.02875161115e-09 3.18803827781e-09
Ar 2.89821677768e-09 2.6083950555e-09 2.89821666666e-10
Ar 2.89821677768e-09 2.6083950555e-09 8.69464999997e-10
Ar 2.89821677768e-09 2.6083950555e-09 1.44910838884e-09
Ar 2.89821677768e-09 2.6083950555e-09 2.02875161115e-09
Ar 2.89821677768e-09 2.6083950555e-09 2.6083950555e-09
Ar 2.89821677768e-09 2.6083950555e-09 3.18803827781e-09
Ar 2.89821677768e-09 3.18803827781e-09 2.89821666666e-10
Ar 2.89821677768e-09 3.18803827781e-09 8.69464999997e-10
Ar 2.89821677768e-09 3.18803827781e-09 1.44910838884e-09
Ar 2.89821677768e-09 3.18803827781e-09 2.02875161115e-09
Ar 2.89821677768e-09 3.18803827781e-09 2.6083950555e-09
Ar 2.89821677768e-09 3.18803827781e-09 3.18803827781e-09
Ar 2.89821666666e-10 0.0 2.89821666666e-10
Ar 2.89821666666e-10 0.0 8.69464999997e-10
Ar 2.89821666666e-10 0.0 1.44910838884e-09
Ar 2.89821666666e-10 0.0 2.02875161115e-09
Ar 2.89821666666e-10 0.0 2.6083950555e-09
Ar 2.89821666666e-10 0.0 3.18803827781e-09
Ar 2.89821666666e-10 5.79643333332e-10 2.89821666666e-10
Ar 2.89821666666e-10 5.79643333332e-10 8.69464999997e-10
Ar 2.89821666666e-10 5.79643333332e-10 1.44910838884e-09
Ar 2.89821666666e-10 5.79643333332e-10 2.02875161115e-09
Ar 2.89821666666e-10 5.79643333332e-10 2.6083950555e-09
Ar 2.89821666666e-10 5.79643333332e-10 3.18803827781e-09
Ar 2.89821666666e-10 1.15928666666e-09 2.89821666666e-10
Ar 2.89821666666e-10 1.15928666666e-09 8.69464999997e-10
Ar 2.89821666666e-10 1.15928666666e-09 1.44910838884e-09
Ar 2.89821666666e-10 1.15928666666e-09 2.02875161115e-09
Ar 2.89821666666e-10 1.15928666666e-09 2.6083950555e-09
Ar 2.89821666666e-10 1.15928666666e-09 3.18803827781e-09
Ar 2.89821666666e-10 1.73892999999e-09 2.89821666666e-10
Ar 2.89821666666e-10 1.73892999999e-09 8.69464999997e-10
Ar 2.89821666666e-10 1.73892999999e-09 1.44910838884e-09
Ar 2.89821666666e-10 1.73892999999e-09 2.02875161115e-09
Ar 2.89821666666e-10 1.73892999999e-09 2.6083950555e-09
Ar 2.89821666666e-10 1.73892999999e-09 3.18803827781e-09
Ar 2.89821666666e-10 2.31857333333e-09 2.89821666666e-10
Ar 2.89821666666e-10 2.31857333333e-09 8.69464999997e-10
Ar 2.89821666666e-10 2.31857333333e-09 1.44910838884e-09
Ar 2.89821666666e-10 2.31857333333e-09 2.02875161115e-09
Ar 2.89821666666e-10 2.31857333333e-09 2.6083950555e-09
Ar 2.89821666666e-10 2.31857333333e-09 3.18803827781e-09
Ar 2.89821666666e-10 2.89821677768e-09 2.89821666666e-10
Ar 2.89821666666e-10 2.89821677768e-09 8.69464999997e-10
Ar 2.89821666666e-10 2.89821677768e-09 1.44910838884e-09
Ar 2.89821666666e-10 2.89821677768e-09 2.02875161115e-09
Ar 2.89821666666e-10 2.89821677768e-09 2.6083950555e-09
Ar 2.89821666666e-10 2.89821677768e-09 3.18803827781e-09
Ar 2.89821666666e-10 2.89821666666e-10 0.0
Ar 2.89821666666e-10 2.89821666666e-10 5.79643333332e-10
Ar 2.89821666666e-10 2.89821666666e-10 1.15928666666e-09
Ar 2.89821666666e-10 2.89821666666e-10 1.73892999999e-09
Ar 2.89821666666e-10 2.89821666666e-10 2.31857333333e-09
Ar 2.89821666666e-10 2.89821666666e-10 2.89821677768e-09
Ar 2.89821666666e-10 8.69464999997e-10 0.0
Ar 2.89821666666e-10 8.69464999997e-10 5.79643333332e-10
Ar 2.89821666666e-10 8.69464999997e-10 1.15928666666e-09
Ar 2.89821666666e-10 8.69464999997e-10 1.73892999999e-09
Ar 2.89821666666e-10 8.69464999997e-10 2.31857333333e-09
Ar 2.89821666666e-10 8.69464999997e-10 2.89821677768e-09
Ar 2.89821666666e-10 1.44910838884e-09 0.0
Ar 2.89821666666e-10 1.44910838884e-09 5.79643333332e-10
Ar 2.89821666666e-10 1.44910838884e-09 1.15928666666e-09
Ar 2.89821666666e-10 1.44910838884e-09 1.73892999999e-09
Ar 2.89821666666e-10 1.44910838884e-09 2.31857333333e-09
Ar 2.89821666666e-10 1.44910838884e-09 2.89821677768e-09
Ar 2.89821666666e-10 2.02875161115e-09 0.0
Ar 2.89821666666e-10 2.02875161115e-09 5.79643333332e-10
Ar 2.89821666666e-10 2.02875161115e-09 1.15928666666e-09
Ar 2.89821666666e-10 2.02875161115e-09 1.73892999999e-09
Ar 2.89821666666e-10 2.02875161115e-09 2.31857333333e-09
Ar 2.89821666666e-10 2.02875161115e-09 2.89821677768e-09
Ar 2.89821666666e-10 2.6083950555e-09 0.0
Ar 2.89821666666e-10 2.6083950555e-09 5.79643333332e-10
Ar 2.89821666666e-10 2.6083950555e-09 1.15928666666e-09
Ar 2.89821666666e-10 2.6083950555e-09 1.73892999999e-09
Ar 2.89821666666e-10 2.6083950555e-09 2.31857333333e-09
Ar 2.89821666666e-10 2.6083950555e-09 2.89821677768e-09
Ar 2.89821666666e-10 3.18803827781e-09 0.0
Ar 2.89821666666e-10 3.18803827781e-09 5.79643333332e-10
Ar 2.89821666666e-10 3.18803827781e-09 1.15928666666e-09
Ar 2.89821666666e-10 3.18803827781e-09 1.73892999999e-09
Ar 2.89821666666e-10 3.18803827781e-09 2.31857333333e-09
Ar 2.89821666666e-10 3.18803827781e-09 2.89821677768e-09
Ar 8.69464999997e-10 0.0 2.89821666666e-10
Ar 8.69464999997e-10 0.0 8.69464999997e-10
Ar 8.69464999997e-10 0.0 1.44910838884e-09
Ar 8.69464999997e-10 0.0 2.02875161115e-09
Ar 8.69464999997e-10 0.0 2.6083950555e-09
Ar 8.69464999997e-10 0.0 3.18803827781e-09
Ar 8.69464999997e-10 5.79643333332e-10 2.89821666666e-10
Ar 8.69464999997e-10 5.79643333332e-10 8.69464999997e-10
Ar 8.69464999997e-10 5.79643333332e-10 1.44910838884e-09
Ar 8.69464999997e-10 5.79643333332e-10 2.02875161115e-09
Ar 8.69464999997e-10 5.79643333332e-10 2.6083950555e-09
Ar 8.69464999997e-10 5.79643333332e-10 3.18803827781e-09
Ar 8.69464999997e-10 1.15928666666e-09 2.89821666666e-10
Ar 8.69464999997e-10 1.15928666666e-09 8.69464999997e-10
Ar 8.69464999997e-10 1.15928666666e-09 1.44910838884e-09
Ar 8.69464999997e-10 1.15928666666e-09 2.02875161115e-09
Ar 8.69464999997e-10 1.15928666666e-09 2.6083950555e-09
Ar 8.69464999997e-10 1.15928666666e-09 3.18803827781e-09
Ar 8.69464999997e-10 1.73892999999e-09 2.89821666666e-10
Ar 8.69464999997e-10 1.73892999999e-09 8.69464999997e-10
Ar 8.69464999997e-10 1.73892999999e-09 1.44910838884e-09
Ar 8.69464999997e-10 1.73892999999e-09 2.02875161115e-09
Ar 8.69464999997e-10 1.73892999999e-09 2.6083950555e-09
Ar 8.69464999997e-10 1.73892999999e-09 3.18803827781e-09
Ar 8.69464999997e-10 2.31857333333e-09 2.89821666666e-10
Ar 8.69464999997e-10 2.31857333333e-09 8.69464999997e-10
Ar 8.69464999997e-10 2.31857333333e-09 1.44910838884e-09
Ar 8.69464999997e-10 2.31857333333e-09 2.02875161115e-09
Ar 8.69464999997e-10 2.31857333333e-09 2.6083950555e-09
Ar 8.69464999997e-10 2.31857333333e-09 3.18803827781e-09
Ar 8.69464999997e-10 2.89821677768e-09 2.89821666666e-10
Ar 8.69464999997e-10 2.89821677768e-09 8.69464999997e-10
Ar 8.69464999997e-10 2.89821677768e-09 1.44910838884e-09
Ar 8.69464999997e-10 2.89821677768e-09 2.02875161115e-09
Ar 8.69464999997e-10 2.89821677768e-09 2.6083950555e-09
Ar 8.69464999997e-10 2.89821677768e-09 3.18803827781e-09
Ar 8.69464999997e-10 2.89821666666e-10 0.0
Ar 8.69464999997e-10 2.89821666666e-10 5.79643333332e-10
Ar 8.69464999997e-10 2.89821666666e-10 1.15928666666e-09
Ar 8.69464999997e-10 2.89821666666e-10 1.73892999999e-09
Ar 8.69464999997e-10 2.89821666666e-10 2.31857333333e-09
Ar 8.69464999997e-10 2.89821666666e-10 2.89821677768e-09
Ar 8.69464999997e-10 8.69464999997e-10 0.0
Ar 8.69464999997e-10 8.69464999997e-10 5.79643333332e-10
Ar 8.69464999997e-10 8.69464999997e-10 1.15928666666e-09
Ar 8.69464999997e-10 8.69464999997e-10 1.73892999999e-09
Ar 8.69464999997e-10 8.69464999997e-10 2.31857333333e-09
Ar 8.69464999997e-10 8.69464999997e-10 2.89821677768e-09
Ar 8.69464999997e-10 1.44910838884e-09 0.0
Ar 8.69464999997e-10 1.44910838884e-09 5.79643333332e-10
Ar 8.69464999997e-10 1.44910838884e-09 1.15928666666e-09
Ar 8.69464999997e-10 1.44910838884e-09 1.73892999999e-09
Ar 8.69464999997e-10 1.44910838884e-09 2.31857333333e-09
Ar 8.69464999997e-10 1.44910838884e-09 2.89821677768e-09
Ar 8.69464999997e-10 2.02875161115e-09 0.0
Ar 8.69464999997e-10 2.02875161115e-09 5.79643333332e-10
Ar 8.69464999997e-10 2.02875161115e-09 1.15928666666e-09
Ar 8.69464999997e-10 2.02875161115e-09 1.73892999999e-09
Ar 8.69464999997e-10 2.02875161115e-09 2.31857333333e-09
Ar 8.69464999997e-10 2.02875161115e-09 2.89821677768e-09
Ar 8.69464999997e-10 2.6083950555e-09 0.0
Ar 8.69464999997e-10 2.6083950555e-09 5.79643333332e-10
Ar 8.69464999997e-10 2.6083950555e-09 1.15928666666e-09
Ar 8.69464999997e-10 2.6083950555e-09 1.73892999999e-09